M 0.0 nn 101 x 1000 y 1000 rp leach
M 0.0 sc /home/parva/ns-allinone-2.35/ns-2.35/mit/uAMPS/sims/nodescen cp none seed 0.0
M 0.0 prop Propagation/TwoRayGround ant Antenna/OmniAntenna
s 0.000019620 _17_ AGT  --- 0 tcp 14129 [0 11000000 0 0] ------- [17:0 0:-1 32 0] [0 0] 0 1
s 0.000027665 _90_ AGT  --- 1 tcp 12345 [0 5a000000 0 0] ------- [90:0 0:-1 32 0] [0 0] 0 1
s 0.000040849 _8_ AGT  --- 2 tcp 56 [0 8000000 0 0] ------- [8:0 0:-1 32 0] [0 0] 0 1
s 0.000128263 _1_ AGT  --- 3 tcp 49 [0 1000000 0 0] ------- [1:0 0:-1 32 0] [0 0] 0 1
s 0.000151503 _29_ AGT  --- 4 tcp 14642 [0 1d000000 0 0] ------- [29:0 0:-1 32 0] [0 0] 0 1
s 0.000171919 _32_ AGT  --- 5 tcp 12851 [0 20000000 0 0] ------- [32:0 0:-1 32 0] [0 0] 0 1
s 0.004908650 _95_ AGT  --- 808333344 audio 740308281 [0 5f000000 0 0] ------- [95:0 0:-1 32 0] 
s 0.004955650 _28_ AGT  --- 808333344 audio 740309042 [0 1c000000 0 0] ------- [28:0 0:-1 32 0] 
s 0.005013435 _59_ AGT  --- 808333344 audio 740309301 [0 3b000000 0 0] ------- [59:0 0:-1 32 0] 
s 0.005261994 _26_ AGT  --- 808333344 audio 740308530 [0 1a000000 0 0] ------- [26:0 0:-1 32 0] 
s 0.005321305 _69_ AGT  --- 808333344 audio 740309302 [0 45000000 0 0] ------- [69:0 0:-1 32 0] 
s 0.005456462 _55_ AGT  --- 808333344 audio 740308277 [0 37000000 0 0] ------- [55:0 0:-1 32 0] 
s 0.005614670 _53_ AGT  --- 808333344 audio 740307765 [0 35000000 0 0] ------- [53:0 0:-1 32 0] 
s 0.005623410 _84_ AGT  --- 808333344 audio 740308024 [0 54000000 0 0] ------- [84:0 0:-1 32 0] 
s 0.005631001 _73_ AGT  --- 808333344 audio 740307767 [0 49000000 0 0] ------- [73:0 0:-1 32 0] 
s 0.006009036 _48_ AGT  --- 808333344 audio 740309044 [0 30000000 0 0] ------- [48:0 0:-1 32 0] 
s 0.006231097 _45_ AGT  --- 808333344 audio 740308276 [0 2d000000 0 0] ------- [45:0 0:-1 32 0] 
s 0.006298212 _80_ AGT  --- 808333344 audio 740307000 [0 50000000 0 0] ------- [80:0 0:-1 32 0] 
s 0.006382444 _85_ AGT  --- 808333344 audio 740308280 [0 55000000 0 0] ------- [85:0 0:-1 32 0] 
s 0.006522537 _25_ AGT  --- 808333344 audio 740308274 [0 19000000 0 0] ------- [25:0 0:-1 32 0] 
s 0.006544145 _93_ AGT  --- 808333344 audio 740307769 [0 5d000000 0 0] ------- [93:0 0:-1 32 0] 
s 0.006586131 _83_ AGT  --- 808333344 audio 740307768 [0 53000000 0 0] ------- [83:0 0:-1 32 0] 
s 0.006605903 _5_ AGT  --- 808463920 audio 539762741 [0 5000000 0 0] ------- [5:0 0:-1 32 0] 
s 0.006949570 _52_ AGT  --- 808333344 audio 740307509 [0 34000000 0 0] ------- [52:0 0:-1 32 0] 
s 0.007027567 _86_ AGT  --- 808333344 audio 740308536 [0 56000000 0 0] ------- [86:0 0:-1 32 0] 
s 0.007042863 _60_ AGT  --- 808333344 audio 740306998 [0 3c000000 0 0] ------- [60:0 0:-1 32 0] 
s 0.007074659 _70_ AGT  --- 808333344 audio 740306999 [0 46000000 0 0] ------- [70:0 0:-1 32 0] 
s 0.007223253 _94_ AGT  --- 808333344 audio 740308025 [0 5e000000 0 0] ------- [94:0 0:-1 32 0] 
s 0.007228458 _97_ AGT  --- 808333344 audio 740308793 [0 61000000 0 0] ------- [97:0 0:-1 32 0] 
s 0.007292363 _36_ AGT  --- 808333344 audio 740308531 [0 24000000 0 0] ------- [36:0 0:-1 32 0] 
s 0.007552443 _65_ AGT  --- 808333344 audio 740308278 [0 41000000 0 0] ------- [65:0 0:-1 32 0] 
s 0.007622772 _11_ AGT  --- 808333344 audio 740307249 [0 b000000 0 0] ------- [11:0 0:-1 32 0] 
s 0.007634652 _98_ AGT  --- 808333344 audio 740309049 [0 62000000 0 0] ------- [98:0 0:-1 32 0] 
s 0.007643800 _23_ AGT  --- 808333344 audio 740307762 [0 17000000 0 0] ------- [23:0 0:-1 32 0] 
s 0.007705828 _9_ AGT  --- 808463920 audio 539762745 [0 9000000 0 0] ------- [9:0 0:-1 32 0] 
s 0.007709446 _66_ AGT  --- 808333344 audio 740308534 [0 42000000 0 0] ------- [66:0 0:-1 32 0] 
s 0.007718719 _42_ AGT  --- 808333344 audio 740307508 [0 2a000000 0 0] ------- [42:0 0:-1 32 0] 
s 0.007830846 _88_ AGT  --- 808333344 audio 740309048 [0 58000000 0 0] ------- [88:0 0:-1 32 0] 
s 0.007851799 _6_ AGT  --- 808463920 audio 539762742 [0 6000000 0 0] ------- [6:0 0:-1 32 0] 
s 0.007858378 _30_ AGT  --- 808333344 audio 740306995 [0 1e000000 0 0] ------- [30:0 0:-1 32 0] 
s 0.008013358 _39_ AGT  --- 808333344 audio 740309299 [0 27000000 0 0] ------- [39:0 0:-1 32 0] 
s 0.008052747 _79_ AGT  --- 808333344 audio 740309303 [0 4f000000 0 0] ------- [79:0 0:-1 32 0] 
s 0.008209120 _43_ AGT  --- 808333344 audio 740307764 [0 2b000000 0 0] ------- [43:0 0:-1 32 0] 
s 0.008355840 _14_ AGT  --- 808333344 audio 740308017 [0 e000000 0 0] ------- [14:0 0:-1 32 0] 
s 0.008366463 _24_ AGT  --- 808333344 audio 740308018 [0 18000000 0 0] ------- [24:0 0:-1 32 0] 
s 0.008446435 _15_ AGT  --- 808333344 audio 740308273 [0 f000000 0 0] ------- [15:0 0:-1 32 0] 
s 0.008639261 _92_ AGT  --- 808333344 audio 740307513 [0 5c000000 0 0] ------- [92:0 0:-1 32 0] 
s 0.008937632 _13_ AGT  --- 808333344 audio 740307761 [0 d000000 0 0] ------- [13:0 0:-1 32 0] 
s 0.009115886 _99_ AGT  --- 808333344 audio 740309305 [0 63000000 0 0] ------- [99:0 0:-1 32 0] 
s 0.009172467 _89_ AGT  --- 808333344 audio 740309304 [0 59000000 0 0] ------- [89:0 0:-1 32 0] 
s 0.009174415 _10_ AGT  --- 808333344 audio 740306993 [0 a000000 0 0] ------- [10:0 0:-1 32 0] 
s 0.009557373 _67_ AGT  --- 808333344 audio 740308790 [0 43000000 0 0] ------- [67:0 0:-1 32 0] 
s 0.009589410 _68_ AGT  --- 808333344 audio 740309046 [0 44000000 0 0] ------- [68:0 0:-1 32 0] 
s 0.010037081 _78_ AGT  --- 808333344 audio 740309047 [0 4e000000 0 0] ------- [78:0 0:-1 32 0] 
s 0.010042686 _21_ AGT  --- 808333344 audio 740307250 [0 15000000 0 0] ------- [21:0 0:-1 32 0] 
s 0.010243512 _75_ AGT  --- 808333344 audio 740308279 [0 4b000000 0 0] ------- [75:0 0:-1 32 0] 
s 0.010313987 _27_ AGT  --- 808333344 audio 740308786 [0 1b000000 0 0] ------- [27:0 0:-1 32 0] 
s 0.010360529 _51_ AGT  --- 808333344 audio 740307253 [0 33000000 0 0] ------- [51:0 0:-1 32 0] 
s 0.010504143 _49_ AGT  --- 808333344 audio 740309300 [0 31000000 0 0] ------- [49:0 0:-1 32 0] 
s 0.010581320 _82_ AGT  --- 808333344 audio 740307512 [0 52000000 0 0] ------- [82:0 0:-1 32 0] 
s 0.010581461 _16_ AGT  --- 808333344 audio 740308529 [0 10000000 0 0] ------- [16:0 0:-1 32 0] 
s 0.010615644 _54_ AGT  --- 808333344 audio 740308021 [0 36000000 0 0] ------- [54:0 0:-1 32 0] 
s 0.010644623 _87_ AGT  --- 808333344 audio 740308792 [0 57000000 0 0] ------- [87:0 0:-1 32 0] 
s 0.010673671 _38_ AGT  --- 808333344 audio 740309043 [0 26000000 0 0] ------- [38:0 0:-1 32 0] 
s 0.010719559 _40_ AGT  --- 808333344 audio 740306996 [0 28000000 0 0] ------- [40:0 0:-1 32 0] 
s 0.010726139 _71_ AGT  --- 808333344 audio 740307255 [0 47000000 0 0] ------- [71:0 0:-1 32 0] 
s 0.011086363 _3_ AGT  --- 808463920 audio 539762739 [0 3000000 0 0] ------- [3:0 0:-1 32 0] 
s 0.011110508 _47_ AGT  --- 808333344 audio 740308788 [0 2f000000 0 0] ------- [47:0 0:-1 32 0] 
s 0.011400714 _57_ AGT  --- 808333344 audio 740308789 [0 39000000 0 0] ------- [57:0 0:-1 32 0] 
s 0.011428539 _81_ AGT  --- 808333344 audio 740307256 [0 51000000 0 0] ------- [81:0 0:-1 32 0] 
s 0.011739901 _72_ AGT  --- 808333344 audio 740307511 [0 48000000 0 0] ------- [72:0 0:-1 32 0] 
s 0.011837020 _56_ AGT  --- 808333344 audio 740308533 [0 38000000 0 0] ------- [56:0 0:-1 32 0] 
s 0.011951025 _91_ AGT  --- 808333344 audio 740307257 [0 5b000000 0 0] ------- [91:0 0:-1 32 0] 
s 0.012233649 _34_ AGT  --- 808333344 audio 740308019 [0 22000000 0 0] ------- [34:0 0:-1 32 0] 
s 0.012260679 _50_ AGT  --- 808333344 audio 740306997 [0 32000000 0 0] ------- [50:0 0:-1 32 0] 
s 0.012362640 _58_ AGT  --- 808333344 audio 740309045 [0 3a000000 0 0] ------- [58:0 0:-1 32 0] 
s 0.012421198 _64_ AGT  --- 808333344 audio 740308022 [0 40000000 0 0] ------- [64:0 0:-1 32 0] 
s 0.012565508 _31_ AGT  --- 808333344 audio 740307251 [0 1f000000 0 0] ------- [31:0 0:-1 32 0] 
s 0.012609895 _4_ AGT  --- 808463920 audio 539762740 [0 4000000 0 0] ------- [4:0 0:-1 32 0] 
s 0.012750835 _22_ AGT  --- 808333344 audio 740307506 [0 16000000 0 0] ------- [22:0 0:-1 32 0] 
s 0.012759048 _0_ AGT  --- 808463920 audio 539762736 [0 0 0 0] ------- [0:0 0:-1 32 0] 
s 0.012817296 _19_ AGT  --- 808333344 audio 740309297 [0 13000000 0 0] ------- [19:0 0:-1 32 0] 
s 0.012827579 _18_ AGT  --- 808333344 audio 740309041 [0 12000000 0 0] ------- [18:0 0:-1 32 0] 
s 0.012839938 _37_ AGT  --- 808333344 audio 740308787 [0 25000000 0 0] ------- [37:0 0:-1 32 0] 
s 0.012902930 _63_ AGT  --- 808333344 audio 740307766 [0 3f000000 0 0] ------- [63:0 0:-1 32 0] 
s 0.013173148 _77_ AGT  --- 808333344 audio 740308791 [0 4d000000 0 0] ------- [77:0 0:-1 32 0] 
s 0.013275881 _61_ AGT  --- 808333344 audio 740307254 [0 3d000000 0 0] ------- [61:0 0:-1 32 0] 
s 0.013365634 _35_ AGT  --- 808333344 audio 740308275 [0 23000000 0 0] ------- [35:0 0:-1 32 0] 
s 0.013411668 _74_ AGT  --- 808333344 audio 740308023 [0 4a000000 0 0] ------- [74:0 0:-1 32 0] 
s 0.013594803 _7_ AGT  --- 808463920 audio 539762743 [0 7000000 0 0] ------- [7:0 0:-1 32 0] 
s 0.013672101 _41_ AGT  --- 808333344 audio 740307252 [0 29000000 0 0] ------- [41:0 0:-1 32 0] 
s 0.013773851 _62_ AGT  --- 808333344 audio 740307510 [0 3e000000 0 0] ------- [62:0 0:-1 32 0] 
s 0.013842331 _96_ AGT  --- 808333344 audio 740308537 [0 60000000 0 0] ------- [96:0 0:-1 32 0] 
s 0.013871355 _20_ AGT  --- 808333344 audio 740306994 [0 14000000 0 0] ------- [20:0 0:-1 32 0] 
s 0.013877591 _2_ AGT  --- 808463920 audio 539762738 [0 2000000 0 0] ------- [2:0 0:-1 32 0] 
s 0.014014385 _12_ AGT  --- 808333344 audio 740307505 [0 c000000 0 0] ------- [12:0 0:-1 32 0] 
s 0.014127312 _46_ AGT  --- 808333344 audio 740308532 [0 2e000000 0 0] ------- [46:0 0:-1 32 0] 
s 0.014408638 _33_ AGT  --- 808333344 audio 740307763 [0 21000000 0 0] ------- [33:0 0:-1 32 0] 
s 0.014664285 _76_ AGT  --- 808333344 audio 740308535 [0 4c000000 0 0] ------- [76:0 0:-1 32 0] 
s 0.014743194 _44_ AGT  --- 808333344 audio 740308020 [0 2c000000 0 0] ------- [44:0 0:-1 32 0] 
M 0.10000 0 (65.75, 92.58, 0.00), (0.00, 0.00), 0.00
M 0.10000 1 (21.01, 92.38, 0.00), (0.00, 0.00), 0.00
M 0.10000 2 (37.20, 40.61, 0.00), (0.00, 0.00), 0.00
M 0.10000 3 (71.22, 61.30, 0.00), (0.00, 0.00), 0.00
M 0.10000 4 (35.00, 11.29, 0.00), (0.00, 0.00), 0.00
M 0.10000 5 (34.15, 98.08, 0.00), (0.00, 0.00), 0.00
M 0.10000 6 (75.98, 64.53, 0.00), (0.00, 0.00), 0.00
M 0.10000 7 (94.46, 5.78, 0.00), (0.00, 0.00), 0.00
M 0.10000 8 (83.60, 14.99, 0.00), (0.00, 0.00), 0.00
M 0.10000 9 (21.77, 45.34, 0.00), (0.00, 0.00), 0.00
M 0.10000 10 (8.30, 59.09, 0.00), (0.00, 0.00), 0.00
M 0.10000 11 (94.22, 62.64, 0.00), (0.00, 0.00), 0.00
M 0.10000 12 (41.80, 50.08, 0.00), (0.00, 0.00), 0.00
M 0.10000 13 (18.29, 13.31, 0.00), (0.00, 0.00), 0.00
M 0.10000 14 (70.74, 92.42, 0.00), (0.00, 0.00), 0.00
M 0.10000 15 (48.97, 20.66, 0.00), (0.00, 0.00), 0.00
M 0.10000 16 (50.24, 95.49, 0.00), (0.00, 0.00), 0.00
M 0.10000 17 (18.03, 3.49, 0.00), (0.00, 0.00), 0.00
M 0.10000 18 (94.18, 55.83, 0.00), (0.00, 0.00), 0.00
M 0.10000 19 (77.78, 71.47, 0.00), (0.00, 0.00), 0.00
M 0.10000 20 (93.10, 85.05, 0.00), (0.00, 0.00), 0.00
M 0.10000 21 (67.30, 30.44, 0.00), (0.00, 0.00), 0.00
M 0.10000 22 (84.12, 85.20, 0.00), (0.00, 0.00), 0.00
M 0.10000 23 (77.78, 7.06, 0.00), (0.00, 0.00), 0.00
M 0.10000 24 (37.10, 53.24, 0.00), (0.00, 0.00), 0.00
M 0.10000 25 (76.71, 56.07, 0.00), (0.00, 0.00), 0.00
M 0.10000 26 (50.02, 8.01, 0.00), (0.00, 0.00), 0.00
M 0.10000 27 (21.16, 97.64, 0.00), (0.00, 0.00), 0.00
M 0.10000 28 (14.57, 31.15, 0.00), (0.00, 0.00), 0.00
M 0.10000 29 (79.97, 11.28, 0.00), (0.00, 0.00), 0.00
M 0.10000 30 (21.55, 18.75, 0.00), (0.00, 0.00), 0.00
M 0.10000 31 (88.57, 38.21, 0.00), (0.00, 0.00), 0.00
M 0.10000 32 (58.49, 20.34, 0.00), (0.00, 0.00), 0.00
M 0.10000 33 (68.35, 1.71, 0.00), (0.00, 0.00), 0.00
M 0.10000 34 (82.13, 40.98, 0.00), (0.00, 0.00), 0.00
M 0.10000 35 (96.21, 84.70, 0.00), (0.00, 0.00), 0.00
M 0.10000 36 (34.66, 49.29, 0.00), (0.00, 0.00), 0.00
M 0.10000 37 (15.29, 27.00, 0.00), (0.00, 0.00), 0.00
M 0.10000 38 (83.54, 0.55, 0.00), (0.00, 0.00), 0.00
M 0.10000 39 (6.35, 96.56, 0.00), (0.00, 0.00), 0.00
M 0.10000 40 (1.71, 95.38, 0.00), (0.00, 0.00), 0.00
M 0.10000 41 (47.61, 11.59, 0.00), (0.00, 0.00), 0.00
M 0.10000 42 (25.24, 62.86, 0.00), (0.00, 0.00), 0.00
M 0.10000 43 (69.09, 66.53, 0.00), (0.00, 0.00), 0.00
M 0.10000 44 (12.85, 0.28, 0.00), (0.00, 0.00), 0.00
M 0.10000 45 (29.09, 13.72, 0.00), (0.00, 0.00), 0.00
M 0.10000 46 (20.42, 9.13, 0.00), (0.00, 0.00), 0.00
M 0.10000 47 (29.42, 63.51, 0.00), (0.00, 0.00), 0.00
M 0.10000 48 (46.98, 48.26, 0.00), (0.00, 0.00), 0.00
M 0.10000 49 (96.66, 30.13, 0.00), (0.00, 0.00), 0.00
M 0.10000 50 (37.12, 58.36, 0.00), (0.00, 0.00), 0.00
M 0.10000 51 (75.16, 25.44, 0.00), (0.00, 0.00), 0.00
M 0.10000 52 (35.74, 65.58, 0.00), (0.00, 0.00), 0.00
M 0.10000 53 (52.25, 35.18, 0.00), (0.00, 0.00), 0.00
M 0.10000 54 (13.70, 75.49, 0.00), (0.00, 0.00), 0.00
M 0.10000 55 (34.05, 60.86, 0.00), (0.00, 0.00), 0.00
M 0.10000 56 (7.63, 96.29, 0.00), (0.00, 0.00), 0.00
M 0.10000 57 (20.52, 35.40, 0.00), (0.00, 0.00), 0.00
M 0.10000 58 (58.81, 56.10, 0.00), (0.00, 0.00), 0.00
M 0.10000 59 (44.18, 77.65, 0.00), (0.00, 0.00), 0.00
M 0.10000 60 (90.08, 75.24, 0.00), (0.00, 0.00), 0.00
M 0.10000 61 (31.38, 70.38, 0.00), (0.00, 0.00), 0.00
M 0.10000 62 (67.63, 93.73, 0.00), (0.00, 0.00), 0.00
M 0.10000 63 (60.76, 41.26, 0.00), (0.00, 0.00), 0.00
M 0.10000 64 (33.04, 84.06, 0.00), (0.00, 0.00), 0.00
M 0.10000 65 (44.26, 96.49, 0.00), (0.00, 0.00), 0.00
M 0.10000 66 (25.30, 65.97, 0.00), (0.00, 0.00), 0.00
M 0.10000 67 (20.01, 2.92, 0.00), (0.00, 0.00), 0.00
M 0.10000 68 (83.72, 90.21, 0.00), (0.00, 0.00), 0.00
M 0.10000 69 (15.59, 40.99, 0.00), (0.00, 0.00), 0.00
M 0.10000 70 (82.73, 1.19, 0.00), (0.00, 0.00), 0.00
M 0.10000 71 (91.77, 78.18, 0.00), (0.00, 0.00), 0.00
M 0.10000 72 (51.16, 9.06, 0.00), (0.00, 0.00), 0.00
M 0.10000 73 (17.90, 29.27, 0.00), (0.00, 0.00), 0.00
M 0.10000 74 (22.78, 43.37, 0.00), (0.00, 0.00), 0.00
M 0.10000 75 (54.77, 62.77, 0.00), (0.00, 0.00), 0.00
M 0.10000 76 (32.06, 9.92, 0.00), (0.00, 0.00), 0.00
M 0.10000 77 (85.50, 7.08, 0.00), (0.00, 0.00), 0.00
M 0.10000 78 (31.41, 24.32, 0.00), (0.00, 0.00), 0.00
M 0.10000 79 (6.25, 37.70, 0.00), (0.00, 0.00), 0.00
M 0.10000 80 (62.59, 0.26, 0.00), (0.00, 0.00), 0.00
M 0.10000 81 (99.49, 20.37, 0.00), (0.00, 0.00), 0.00
M 0.10000 82 (86.44, 61.28, 0.00), (0.00, 0.00), 0.00
M 0.10000 83 (89.88, 87.23, 0.00), (0.00, 0.00), 0.00
M 0.10000 84 (2.14, 13.54, 0.00), (0.00, 0.00), 0.00
M 0.10000 85 (65.93, 28.50, 0.00), (0.00, 0.00), 0.00
M 0.10000 86 (71.19, 66.51, 0.00), (0.00, 0.00), 0.00
M 0.10000 87 (23.96, 13.90, 0.00), (0.00, 0.00), 0.00
M 0.10000 88 (51.75, 80.39, 0.00), (0.00, 0.00), 0.00
M 0.10000 89 (22.95, 70.96, 0.00), (0.00, 0.00), 0.00
M 0.10000 90 (91.85, 11.50, 0.00), (0.00, 0.00), 0.00
M 0.10000 91 (44.44, 45.20, 0.00), (0.00, 0.00), 0.00
M 0.10000 92 (55.13, 34.48, 0.00), (0.00, 0.00), 0.00
M 0.10000 93 (35.27, 77.10, 0.00), (0.00, 0.00), 0.00
M 0.10000 94 (77.21, 28.78, 0.00), (0.00, 0.00), 0.00
M 0.10000 95 (57.08, 44.25, 0.00), (0.00, 0.00), 0.00
M 0.10000 96 (5.25, 57.76, 0.00), (0.00, 0.00), 0.00
M 0.10000 97 (19.13, 76.77, 0.00), (0.00, 0.00), 0.00
M 0.10000 98 (2.47, 57.53, 0.00), (0.00, 0.00), 0.00
M 0.10000 99 (44.07, 10.72, 0.00), (0.00, 0.00), 0.00
M 0.10000 100 (50.00, 175.00, 0.00), (0.00, 0.00), 0.00
r 0.113261627 _67_ AGT  --- 0 tcp 14129 [0 11000000 ffff0008 0] ------- [17:0 0:-1 32 0] [0 0] 1 1
r 0.113261640 _44_ AGT  --- 0 tcp 14129 [0 11000000 ffff0008 0] ------- [17:0 0:-1 32 0] [0 0] 1 1
r 0.113261640 _46_ AGT  --- 0 tcp 14129 [0 11000000 ffff0008 0] ------- [17:0 0:-1 32 0] [0 0] 1 1
r 0.113261653 _13_ AGT  --- 0 tcp 14129 [0 11000000 ffff0008 0] ------- [17:0 0:-1 32 0] [0 0] 1 1
r 0.113261660 _87_ AGT  --- 0 tcp 14129 [0 11000000 ffff0008 0] ------- [17:0 0:-1 32 0] [0 0] 1 1
r 0.113261670 _45_ AGT  --- 0 tcp 14129 [0 11000000 ffff0008 0] ------- [17:0 0:-1 32 0] [0 0] 1 1
r 0.113261671 _76_ AGT  --- 0 tcp 14129 [0 11000000 ffff0008 0] ------- [17:0 0:-1 32 0] [0 0] 1 1
r 0.113261672 _30_ AGT  --- 0 tcp 14129 [0 11000000 ffff0008 0] ------- [17:0 0:-1 32 0] [0 0] 1 1
r 0.113261682 _4_ AGT  --- 0 tcp 14129 [0 11000000 ffff0008 0] ------- [17:0 0:-1 32 0] [0 0] 1 1
r 0.113261683 _84_ AGT  --- 0 tcp 14129 [0 11000000 ffff0008 0] ------- [17:0 0:-1 32 0] [0 0] 1 1
r 0.113261699 _37_ AGT  --- 0 tcp 14129 [0 11000000 ffff0008 0] ------- [17:0 0:-1 32 0] [0 0] 1 1
r 0.113261703 _78_ AGT  --- 0 tcp 14129 [0 11000000 ffff0008 0] ------- [17:0 0:-1 32 0] [0 0] 1 1
r 0.113261706 _73_ AGT  --- 0 tcp 14129 [0 11000000 ffff0008 0] ------- [17:0 0:-1 32 0] [0 0] 1 1
r 0.113261710 _99_ AGT  --- 0 tcp 14129 [0 11000000 ffff0008 0] ------- [17:0 0:-1 32 0] [0 0] 1 1
r 0.113261713 _28_ AGT  --- 0 tcp 14129 [0 11000000 ffff0008 0] ------- [17:0 0:-1 32 0] [0 0] 1 1
r 0.113261722 _41_ AGT  --- 0 tcp 14129 [0 11000000 ffff0008 0] ------- [17:0 0:-1 32 0] [0 0] 1 1
r 0.113261727 _57_ AGT  --- 0 tcp 14129 [0 11000000 ffff0008 0] ------- [17:0 0:-1 32 0] [0 0] 1 1
r 0.113261728 _26_ AGT  --- 0 tcp 14129 [0 11000000 ffff0008 0] ------- [17:0 0:-1 32 0] [0 0] 1 1
r 0.113261732 _72_ AGT  --- 0 tcp 14129 [0 11000000 ffff0008 0] ------- [17:0 0:-1 32 0] [0 0] 1 1
r 0.113261738 _15_ AGT  --- 0 tcp 14129 [0 11000000 ffff0008 0] ------- [17:0 0:-1 32 0] [0 0] 1 1
r 0.113261741 _79_ AGT  --- 0 tcp 14129 [0 11000000 ffff0008 0] ------- [17:0 0:-1 32 0] [0 0] 1 1
r 0.113261745 _69_ AGT  --- 0 tcp 14129 [0 11000000 ffff0008 0] ------- [17:0 0:-1 32 0] [0 0] 1 1
r 0.113261754 _74_ AGT  --- 0 tcp 14129 [0 11000000 ffff0008 0] ------- [17:0 0:-1 32 0] [0 0] 1 1
r 0.113261759 _2_ AGT  --- 0 tcp 14129 [0 11000000 ffff0008 0] ------- [17:0 0:-1 32 0] [0 0] 1 1
r 0.113261760 _9_ AGT  --- 0 tcp 14129 [0 11000000 ffff0008 0] ------- [17:0 0:-1 32 0] [0 0] 1 1
r 0.113261766 _32_ AGT  --- 0 tcp 14129 [0 11000000 ffff0008 0] ------- [17:0 0:-1 32 0] [0 0] 1 1
r 0.113261769 _80_ AGT  --- 0 tcp 14129 [0 11000000 ffff0008 0] ------- [17:0 0:-1 32 0] [0 0] 1 1
r 0.113261775 _53_ AGT  --- 0 tcp 14129 [0 11000000 ffff0008 0] ------- [17:0 0:-1 32 0] [0 0] 1 1
r 0.113261781 _92_ AGT  --- 0 tcp 14129 [0 11000000 ffff0008 0] ------- [17:0 0:-1 32 0] [0 0] 1 1
r 0.113261782 _36_ AGT  --- 0 tcp 14129 [0 11000000 ffff0008 0] ------- [17:0 0:-1 32 0] [0 0] 1 1
r 0.113261785 _91_ AGT  --- 0 tcp 14129 [0 11000000 ffff0008 0] ------- [17:0 0:-1 32 0] [0 0] 1 1
r 0.113261788 _33_ AGT  --- 0 tcp 14129 [0 11000000 ffff0008 0] ------- [17:0 0:-1 32 0] [0 0] 1 1
r 0.113261794 _12_ AGT  --- 0 tcp 14129 [0 11000000 ffff0008 0] ------- [17:0 0:-1 32 0] [0 0] 1 1
r 0.113261798 _24_ AGT  --- 0 tcp 14129 [0 11000000 ffff0008 0] ------- [17:0 0:-1 32 0] [0 0] 1 1
r 0.113261798 _48_ AGT  --- 0 tcp 14129 [0 11000000 ffff0008 0] ------- [17:0 0:-1 32 0] [0 0] 1 1
r 0.113261800 _85_ AGT  --- 0 tcp 14129 [0 11000000 ffff0008 0] ------- [17:0 0:-1 32 0] [0 0] 1 1
r 0.113261806 _96_ AGT  --- 0 tcp 14129 [0 11000000 ffff0008 0] ------- [17:0 0:-1 32 0] [0 0] 1 1
r 0.113261807 _21_ AGT  --- 0 tcp 14129 [0 11000000 ffff0008 0] ------- [17:0 0:-1 32 0] [0 0] 1 1
r 0.113261807 _98_ AGT  --- 0 tcp 14129 [0 11000000 ffff0008 0] ------- [17:0 0:-1 32 0] [0 0] 1 1
r 0.113261808 _95_ AGT  --- 0 tcp 14129 [0 11000000 ffff0008 0] ------- [17:0 0:-1 32 0] [0 0] 1 1
r 0.113261808 _10_ AGT  --- 0 tcp 14129 [0 11000000 ffff0008 0] ------- [17:0 0:-1 32 0] [0 0] 1 1
r 0.113261810 _63_ AGT  --- 0 tcp 14129 [0 11000000 ffff0008 0] ------- [17:0 0:-1 32 0] [0 0] 1 1
r 0.113261814 _50_ AGT  --- 0 tcp 14129 [0 11000000 ffff0008 0] ------- [17:0 0:-1 32 0] [0 0] 1 1
r 0.113261819 _55_ AGT  --- 0 tcp 14129 [0 11000000 ffff0008 0] ------- [17:0 0:-1 32 0] [0 0] 1 1
r 0.113261819 _42_ AGT  --- 0 tcp 14129 [0 11000000 ffff0008 0] ------- [17:0 0:-1 32 0] [0 0] 1 1
r 0.113261820 _23_ AGT  --- 0 tcp 14129 [0 11000000 ffff0008 0] ------- [17:0 0:-1 32 0] [0 0] 1 1
r 0.113261824 _47_ AGT  --- 0 tcp 14129 [0 11000000 ffff0008 0] ------- [17:0 0:-1 32 0] [0 0] 1 1
r 0.113261824 _51_ AGT  --- 0 tcp 14129 [0 11000000 ffff0008 0] ------- [17:0 0:-1 32 0] [0 0] 1 1
r 0.113261828 _29_ AGT  --- 0 tcp 14129 [0 11000000 ffff0008 0] ------- [17:0 0:-1 32 0] [0 0] 1 1
r 0.113261830 _66_ AGT  --- 0 tcp 14129 [0 11000000 ffff0008 0] ------- [17:0 0:-1 32 0] [0 0] 1 1
r 0.113261835 _94_ AGT  --- 0 tcp 14129 [0 11000000 ffff0008 0] ------- [17:0 0:-1 32 0] [0 0] 1 1
r 0.113261835 _52_ AGT  --- 0 tcp 14129 [0 11000000 ffff0008 0] ------- [17:0 0:-1 32 0] [0 0] 1 1
r 0.113261836 _70_ AGT  --- 0 tcp 14129 [0 11000000 ffff0008 0] ------- [17:0 0:-1 32 0] [0 0] 1 1
r 0.113261839 _38_ AGT  --- 0 tcp 14129 [0 11000000 ffff0008 0] ------- [17:0 0:-1 32 0] [0 0] 1 1
r 0.113261842 _58_ AGT  --- 0 tcp 14129 [0 11000000 ffff0008 0] ------- [17:0 0:-1 32 0] [0 0] 1 1
r 0.113261842 _8_ AGT  --- 0 tcp 14129 [0 11000000 ffff0008 0] ------- [17:0 0:-1 32 0] [0 0] 1 1
r 0.113261845 _77_ AGT  --- 0 tcp 14129 [0 11000000 ffff0008 0] ------- [17:0 0:-1 32 0] [0 0] 1 1
r 0.113261846 _89_ AGT  --- 0 tcp 14129 [0 11000000 ffff0008 0] ------- [17:0 0:-1 32 0] [0 0] 1 1
r 0.113261847 _61_ AGT  --- 0 tcp 14129 [0 11000000 ffff0008 0] ------- [17:0 0:-1 32 0] [0 0] 1 1
r 0.113261852 _75_ AGT  --- 0 tcp 14129 [0 11000000 ffff0008 0] ------- [17:0 0:-1 32 0] [0 0] 1 1
r 0.113261860 _54_ AGT  --- 0 tcp 14129 [0 11000000 ffff0008 0] ------- [17:0 0:-1 32 0] [0 0] 1 1
r 0.113261864 _97_ AGT  --- 0 tcp 14129 [0 11000000 ffff0008 0] ------- [17:0 0:-1 32 0] [0 0] 1 1
r 0.113261868 _90_ AGT  --- 0 tcp 14129 [0 11000000 ffff0008 0] ------- [17:0 0:-1 32 0] [0 0] 1 1
r 0.113261868 _34_ AGT  --- 0 tcp 14129 [0 11000000 ffff0008 0] ------- [17:0 0:-1 32 0] [0 0] 1 1
r 0.113261872 _93_ AGT  --- 0 tcp 14129 [0 11000000 ffff0008 0] ------- [17:0 0:-1 32 0] [0 0] 1 1
r 0.113261875 _7_ AGT  --- 0 tcp 14129 [0 11000000 ffff0008 0] ------- [17:0 0:-1 32 0] [0 0] 1 1
r 0.113261882 _3_ AGT  --- 0 tcp 14129 [0 11000000 ffff0008 0] ------- [17:0 0:-1 32 0] [0 0] 1 1
r 0.113261882 _31_ AGT  --- 0 tcp 14129 [0 11000000 ffff0008 0] ------- [17:0 0:-1 32 0] [0 0] 1 1
r 0.113261882 _59_ AGT  --- 0 tcp 14129 [0 11000000 ffff0008 0] ------- [17:0 0:-1 32 0] [0 0] 1 1
r 0.113261883 _25_ AGT  --- 0 tcp 14129 [0 11000000 ffff0008 0] ------- [17:0 0:-1 32 0] [0 0] 1 1
r 0.113261890 _43_ AGT  --- 0 tcp 14129 [0 11000000 ffff0008 0] ------- [17:0 0:-1 32 0] [0 0] 1 1
r 0.113261893 _64_ AGT  --- 0 tcp 14129 [0 11000000 ffff0008 0] ------- [17:0 0:-1 32 0] [0 0] 1 1
r 0.113261895 _86_ AGT  --- 0 tcp 14129 [0 11000000 ffff0008 0] ------- [17:0 0:-1 32 0] [0 0] 1 1
r 0.113261897 _49_ AGT  --- 0 tcp 14129 [0 11000000 ffff0008 0] ------- [17:0 0:-1 32 0] [0 0] 1 1
r 0.113261897 _81_ AGT  --- 0 tcp 14129 [0 11000000 ffff0008 0] ------- [17:0 0:-1 32 0] [0 0] 1 1
r 0.113261900 _88_ AGT  --- 0 tcp 14129 [0 11000000 ffff0008 0] ------- [17:0 0:-1 32 0] [0 0] 1 1
r 0.113261901 _6_ AGT  --- 0 tcp 14129 [0 11000000 ffff0008 0] ------- [17:0 0:-1 32 0] [0 0] 1 1
r 0.113261917 _1_ AGT  --- 0 tcp 14129 [0 11000000 ffff0008 0] ------- [17:0 0:-1 32 0] [0 0] 1 1
r 0.113261919 _82_ AGT  --- 0 tcp 14129 [0 11000000 ffff0008 0] ------- [17:0 0:-1 32 0] [0 0] 1 1
r 0.113261922 _19_ AGT  --- 0 tcp 14129 [0 11000000 ffff0008 0] ------- [17:0 0:-1 32 0] [0 0] 1 1
r 0.113261928 _18_ AGT  --- 0 tcp 14129 [0 11000000 ffff0008 0] ------- [17:0 0:-1 32 0] [0 0] 1 1
r 0.113261931 _40_ AGT  --- 0 tcp 14129 [0 11000000 ffff0008 0] ------- [17:0 0:-1 32 0] [0 0] 1 1
r 0.113261931 _56_ AGT  --- 0 tcp 14129 [0 11000000 ffff0008 0] ------- [17:0 0:-1 32 0] [0 0] 1 1
r 0.113261933 _39_ AGT  --- 0 tcp 14129 [0 11000000 ffff0008 0] ------- [17:0 0:-1 32 0] [0 0] 1 1
r 0.113261934 _27_ AGT  --- 0 tcp 14129 [0 11000000 ffff0008 0] ------- [17:0 0:-1 32 0] [0 0] 1 1
r 0.113261940 _5_ AGT  --- 0 tcp 14129 [0 11000000 ffff0008 0] ------- [17:0 0:-1 32 0] [0 0] 1 1
r 0.113261942 _11_ AGT  --- 0 tcp 14129 [0 11000000 ffff0008 0] ------- [17:0 0:-1 32 0] [0 0] 1 1
r 0.113261942 _65_ AGT  --- 0 tcp 14129 [0 11000000 ffff0008 0] ------- [17:0 0:-1 32 0] [0 0] 1 1
r 0.113261945 _16_ AGT  --- 0 tcp 14129 [0 11000000 ffff0008 0] ------- [17:0 0:-1 32 0] [0 0] 1 1
r 0.113261957 _0_ AGT  --- 0 tcp 14129 [0 11000000 ffff0008 0] ------- [17:0 0:-1 32 0] [0 0] 1 1
r 0.113261959 _60_ AGT  --- 0 tcp 14129 [0 11000000 ffff0008 0] ------- [17:0 0:-1 32 0] [0 0] 1 1
r 0.113261963 _62_ AGT  --- 0 tcp 14129 [0 11000000 ffff0008 0] ------- [17:0 0:-1 32 0] [0 0] 1 1
r 0.113261965 _14_ AGT  --- 0 tcp 14129 [0 11000000 ffff0008 0] ------- [17:0 0:-1 32 0] [0 0] 1 1
r 0.113261970 _71_ AGT  --- 0 tcp 14129 [0 11000000 ffff0008 0] ------- [17:0 0:-1 32 0] [0 0] 1 1
r 0.113261970 _22_ AGT  --- 0 tcp 14129 [0 11000000 ffff0008 0] ------- [17:0 0:-1 32 0] [0 0] 1 1
r 0.113261983 _68_ AGT  --- 0 tcp 14129 [0 11000000 ffff0008 0] ------- [17:0 0:-1 32 0] [0 0] 1 1
r 0.113261988 _83_ AGT  --- 0 tcp 14129 [0 11000000 ffff0008 0] ------- [17:0 0:-1 32 0] [0 0] 1 1
r 0.113261990 _20_ AGT  --- 0 tcp 14129 [0 11000000 ffff0008 0] ------- [17:0 0:-1 32 0] [0 0] 1 1
r 0.113261996 _35_ AGT  --- 0 tcp 14129 [0 11000000 ffff0008 0] ------- [17:0 0:-1 32 0] [0 0] 1 1
r 0.113890280 _27_ AGT  --- 3 tcp 49 [0 1000000 ffff0008 0] ------- [1:0 0:-1 32 0] [0 0] 1 1
r 0.113890309 _56_ AGT  --- 3 tcp 49 [0 1000000 ffff0008 0] ------- [1:0 0:-1 32 0] [0 0] 1 1
r 0.113890310 _5_ AGT  --- 3 tcp 49 [0 1000000 ffff0008 0] ------- [1:0 0:-1 32 0] [0 0] 1 1
r 0.113890311 _64_ AGT  --- 3 tcp 49 [0 1000000 ffff0008 0] ------- [1:0 0:-1 32 0] [0 0] 1 1
r 0.113890313 _39_ AGT  --- 3 tcp 49 [0 1000000 ffff0008 0] ------- [1:0 0:-1 32 0] [0 0] 1 1
r 0.113890315 _97_ AGT  --- 3 tcp 49 [0 1000000 ffff0008 0] ------- [1:0 0:-1 32 0] [0 0] 1 1
r 0.113890324 _54_ AGT  --- 3 tcp 49 [0 1000000 ffff0008 0] ------- [1:0 0:-1 32 0] [0 0] 1 1
r 0.113890328 _40_ AGT  --- 3 tcp 49 [0 1000000 ffff0008 0] ------- [1:0 0:-1 32 0] [0 0] 1 1
r 0.113890332 _93_ AGT  --- 3 tcp 49 [0 1000000 ffff0008 0] ------- [1:0 0:-1 32 0] [0 0] 1 1
r 0.113890334 _89_ AGT  --- 3 tcp 49 [0 1000000 ffff0008 0] ------- [1:0 0:-1 32 0] [0 0] 1 1
r 0.113890341 _65_ AGT  --- 3 tcp 49 [0 1000000 ffff0008 0] ------- [1:0 0:-1 32 0] [0 0] 1 1
r 0.113890344 _61_ AGT  --- 3 tcp 49 [0 1000000 ffff0008 0] ------- [1:0 0:-1 32 0] [0 0] 1 1
r 0.113890352 _66_ AGT  --- 3 tcp 49 [0 1000000 ffff0008 0] ------- [1:0 0:-1 32 0] [0 0] 1 1
r 0.113890354 _59_ AGT  --- 3 tcp 49 [0 1000000 ffff0008 0] ------- [1:0 0:-1 32 0] [0 0] 1 1
r 0.113890361 _16_ AGT  --- 3 tcp 49 [0 1000000 ffff0008 0] ------- [1:0 0:-1 32 0] [0 0] 1 1
r 0.113890362 _42_ AGT  --- 3 tcp 49 [0 1000000 ffff0008 0] ------- [1:0 0:-1 32 0] [0 0] 1 1
r 0.113890363 _47_ AGT  --- 3 tcp 49 [0 1000000 ffff0008 0] ------- [1:0 0:-1 32 0] [0 0] 1 1
r 0.113890364 _52_ AGT  --- 3 tcp 49 [0 1000000 ffff0008 0] ------- [1:0 0:-1 32 0] [0 0] 1 1
r 0.113890373 _88_ AGT  --- 3 tcp 49 [0 1000000 ffff0008 0] ------- [1:0 0:-1 32 0] [0 0] 1 1
r 0.113890376 _55_ AGT  --- 3 tcp 49 [0 1000000 ffff0008 0] ------- [1:0 0:-1 32 0] [0 0] 1 1
r 0.113890381 _10_ AGT  --- 3 tcp 49 [0 1000000 ffff0008 0] ------- [1:0 0:-1 32 0] [0 0] 1 1
r 0.113890388 _50_ AGT  --- 3 tcp 49 [0 1000000 ffff0008 0] ------- [1:0 0:-1 32 0] [0 0] 1 1
r 0.113890389 _96_ AGT  --- 3 tcp 49 [0 1000000 ffff0008 0] ------- [1:0 0:-1 32 0] [0 0] 1 1
r 0.113890394 _98_ AGT  --- 3 tcp 49 [0 1000000 ffff0008 0] ------- [1:0 0:-1 32 0] [0 0] 1 1
r 0.113890404 _24_ AGT  --- 3 tcp 49 [0 1000000 ffff0008 0] ------- [1:0 0:-1 32 0] [0 0] 1 1
r 0.113890412 _0_ AGT  --- 3 tcp 49 [0 1000000 ffff0008 0] ------- [1:0 0:-1 32 0] [0 0] 1 1
r 0.113890412 _75_ AGT  --- 3 tcp 49 [0 1000000 ffff0008 0] ------- [1:0 0:-1 32 0] [0 0] 1 1
r 0.113890413 _36_ AGT  --- 3 tcp 49 [0 1000000 ffff0008 0] ------- [1:0 0:-1 32 0] [0 0] 1 1
r 0.113890418 _62_ AGT  --- 3 tcp 49 [0 1000000 ffff0008 0] ------- [1:0 0:-1 32 0] [0 0] 1 1
r 0.113890419 _9_ AGT  --- 3 tcp 49 [0 1000000 ffff0008 0] ------- [1:0 0:-1 32 0] [0 0] 1 1
r 0.113890420 _12_ AGT  --- 3 tcp 49 [0 1000000 ffff0008 0] ------- [1:0 0:-1 32 0] [0 0] 1 1
r 0.113890426 _74_ AGT  --- 3 tcp 49 [0 1000000 ffff0008 0] ------- [1:0 0:-1 32 0] [0 0] 1 1
r 0.113890428 _14_ AGT  --- 3 tcp 49 [0 1000000 ffff0008 0] ------- [1:0 0:-1 32 0] [0 0] 1 1
r 0.113890433 _48_ AGT  --- 3 tcp 49 [0 1000000 ffff0008 0] ------- [1:0 0:-1 32 0] [0 0] 1 1
r 0.113890435 _69_ AGT  --- 3 tcp 49 [0 1000000 ffff0008 0] ------- [1:0 0:-1 32 0] [0 0] 1 1
r 0.113890437 _58_ AGT  --- 3 tcp 49 [0 1000000 ffff0008 0] ------- [1:0 0:-1 32 0] [0 0] 1 1
r 0.113890438 _91_ AGT  --- 3 tcp 49 [0 1000000 ffff0008 0] ------- [1:0 0:-1 32 0] [0 0] 1 1
r 0.113890443 _2_ AGT  --- 3 tcp 49 [0 1000000 ffff0008 0] ------- [1:0 0:-1 32 0] [0 0] 1 1
r 0.113890444 _43_ AGT  --- 3 tcp 49 [0 1000000 ffff0008 0] ------- [1:0 0:-1 32 0] [0 0] 1 1
r 0.113890451 _86_ AGT  --- 3 tcp 49 [0 1000000 ffff0008 0] ------- [1:0 0:-1 32 0] [0 0] 1 1
r 0.113890451 _79_ AGT  --- 3 tcp 49 [0 1000000 ffff0008 0] ------- [1:0 0:-1 32 0] [0 0] 1 1
r 0.113890452 _57_ AGT  --- 3 tcp 49 [0 1000000 ffff0008 0] ------- [1:0 0:-1 32 0] [0 0] 1 1
r 0.113890459 _3_ AGT  --- 3 tcp 49 [0 1000000 ffff0008 0] ------- [1:0 0:-1 32 0] [0 0] 1 1
r 0.113890463 _95_ AGT  --- 3 tcp 49 [0 1000000 ffff0008 0] ------- [1:0 0:-1 32 0] [0 0] 1 1
r 0.113890464 _19_ AGT  --- 3 tcp 49 [0 1000000 ffff0008 0] ------- [1:0 0:-1 32 0] [0 0] 1 1
r 0.113890468 _28_ AGT  --- 3 tcp 49 [0 1000000 ffff0008 0] ------- [1:0 0:-1 32 0] [0 0] 1 1
r 0.113890468 _6_ AGT  --- 3 tcp 49 [0 1000000 ffff0008 0] ------- [1:0 0:-1 32 0] [0 0] 1 1
r 0.113890472 _68_ AGT  --- 3 tcp 49 [0 1000000 ffff0008 0] ------- [1:0 0:-1 32 0] [0 0] 1 1
r 0.113890473 _73_ AGT  --- 3 tcp 49 [0 1000000 ffff0008 0] ------- [1:0 0:-1 32 0] [0 0] 1 1
r 0.113890474 _22_ AGT  --- 3 tcp 49 [0 1000000 ffff0008 0] ------- [1:0 0:-1 32 0] [0 0] 1 1
r 0.113890478 _63_ AGT  --- 3 tcp 49 [0 1000000 ffff0008 0] ------- [1:0 0:-1 32 0] [0 0] 1 1
r 0.113890480 _53_ AGT  --- 3 tcp 49 [0 1000000 ffff0008 0] ------- [1:0 0:-1 32 0] [0 0] 1 1
r 0.113890481 _37_ AGT  --- 3 tcp 49 [0 1000000 ffff0008 0] ------- [1:0 0:-1 32 0] [0 0] 1 1